<?xml version="1.0" encoding="UTF-8"?>

<!-- generated on 2025-06-30 14:05:12 by Eclipse SUMO GUI Version 1.23.1
<sumoConfiguration xmlns:xsi="http://www.w3.org/2001/XMLSchema-instance" xsi:noNamespaceSchemaLocation="http://sumo.dlr.de/xsd/sumoConfiguration.xsd">

    <input>
        <net-file value="sumo\../data/glasgow.net.xml"/>
        <route-files value="sumo\generated_routes.rou.xml"/>
        <additional-files value="sumo\vehicles.add.xml,sumo\chargingStations.add.xml,sumo\../data/glasgow.poly.xml"/>
    </input>

    <output>
        <battery-output value="sumo\../data/battery_output.xml"/>
        <summary-output value="sumo\../data/summary_output.xml"/>
        <tripinfo-output value="sumo\../data/tripinfo_output.xml"/>
        <tripinfo-output.write-unfinished value="true"/>
        <vehroute-output value="sumo\../data/veh_route_output.xml"/>
    </output>

    <time>
        <begin value="0"/>
        <end value="3600"/>
        <step-length value="1.0"/>
    </time>

    <processing>
        <ignore-route-errors value="true"/>
        <eager-insert value="true"/>
    </processing>

    <report>
        <verbose value="true"/>
        <no-step-log value="true"/>
    </report>

    <traci_server>
        <remote-port value="53168"/>
    </traci_server>

    <gui_only>
        <quit-on-end value="false"/>
        <start value="true"/>
        <delay value="50"/>
    </gui_only>

</sumoConfiguration>
-->

<tripinfos xmlns:xsi="http://www.w3.org/2001/XMLSchema-instance" xsi:noNamespaceSchemaLocation="http://sumo.dlr.de/xsd/tripinfo_file.xsd">
    <tripinfo id="35" depart="35.00" departLane="-29425424#3_0" departPos="0.20" departSpeed="0.00" departDelay="0.00" arrival="236.00" arrivalLane="80584699#0_0" arrivalPos="15.95" arrivalSpeed="7.36" duration="201.00" routeLength="2372.68" waitingTime="0.00" waitingCount="0" stopTime="0.00" timeLoss="25.21" rerouteNo="0" devices="vehroute_35 tripinfo_35" vType="petrol" speedFactor="1.02" vaporized=""/>
    <tripinfo id="69" depart="69.00" departLane="45406895#0_0" departPos="5.10" departSpeed="0.00" departDelay="0.00" arrival="240.00" arrivalLane="-24316702#4_0" arrivalPos="6.01" arrivalSpeed="8.53" duration="171.00" routeLength="1500.88" waitingTime="29.00" waitingCount="1" stopTime="0.00" timeLoss="52.37" rerouteNo="0" devices="vehroute_69 tripinfo_69" vType="petrol" speedFactor="1.02" vaporized=""/>
    <tripinfo id="47" depart="47.00" departLane="-158371794#23_0" departPos="5.10" departSpeed="0.00" departDelay="0.00" arrival="249.00" arrivalLane="-81358039#6_0" arrivalPos="0.20" arrivalSpeed="11.77" duration="202.00" routeLength="1284.46" waitingTime="66.00" waitingCount="2" stopTime="0.00" timeLoss="91.60" rerouteNo="0" devices="vehroute_47 tripinfo_47" vType="petrol" speedFactor="0.90" vaporized=""/>
    <tripinfo id="49" depart="49.00" departLane="833743727#0_0" departPos="5.10" departSpeed="0.00" departDelay="0.00" arrival="281.00" arrivalLane="58648676#3_0" arrivalPos="50.38" arrivalSpeed="6.87" duration="232.00" routeLength="1095.65" waitingTime="79.00" waitingCount="3" stopTime="0.00" timeLoss="104.73" rerouteNo="0" devices="vehroute_49 tripinfo_49" vType="petrol" speedFactor="0.85" vaporized=""/>
    <tripinfo id="66" depart="66.00" departLane="70266004#3_0" departPos="5.10" departSpeed="0.00" departDelay="0.00" arrival="282.00" arrivalLane="80962184#1_0" arrivalPos="19.19" arrivalSpeed="12.05" duration="216.00" routeLength="2574.29" waitingTime="1.00" waitingCount="1" stopTime="0.00" timeLoss="27.46" rerouteNo="0" devices="vehroute_66 tripinfo_66 battery_66" vType="EV" speedFactor="0.91" vaporized="">
        <battery depleted="0" actualBatteryCapacity="17231.43" totalEnergyConsumed="555.17" totalEnergyRegenerated="286.60"/>
    </tripinfo>
    <tripinfo id="6" depart="6.00" departLane="-122719539#3_0" departPos="2.46" departSpeed="0.00" departDelay="0.00" arrival="299.00" arrivalLane="-380052509_0" arrivalPos="39.13" arrivalSpeed="14.30" duration="293.00" routeLength="2898.23" waitingTime="78.00" waitingCount="4" stopTime="0.00" timeLoss="129.47" rerouteNo="0" devices="vehroute_6 tripinfo_6" vType="petrol" speedFactor="1.05" vaporized=""/>
    <tripinfo id="212" depart="212.00" departLane="4381316_0" departPos="5.10" departSpeed="0.00" departDelay="0.00" arrival="301.00" arrivalLane="4329331#3_0" arrivalPos="35.05" arrivalSpeed="13.03" duration="89.00" routeLength="794.95" waitingTime="0.00" waitingCount="0" stopTime="0.00" timeLoss="18.44" rerouteNo="0" devices="vehroute_212 tripinfo_212" vType="petrol" speedFactor="1.00" vaporized=""/>
    <tripinfo id="171" depart="171.00" departLane="-47500097#4_0" departPos="0.20" departSpeed="0.00" departDelay="0.00" arrival="306.00" arrivalLane="59861104#1_0" arrivalPos="64.83" arrivalSpeed="7.74" duration="135.00" routeLength="1327.42" waitingTime="0.00" waitingCount="0" stopTime="0.00" timeLoss="22.10" rerouteNo="0" devices="vehroute_171 tripinfo_171" vType="petrol" speedFactor="0.90" vaporized=""/>
    <tripinfo id="37" depart="37.00" departLane="250478231#0_0" departPos="5.10" departSpeed="0.00" departDelay="0.00" arrival="340.00" arrivalLane="-82265059_0" arrivalPos="21.04" arrivalSpeed="10.25" duration="303.00" routeLength="4047.60" waitingTime="22.00" waitingCount="1" stopTime="0.00" timeLoss="55.40" rerouteNo="0" devices="vehroute_37 tripinfo_37" vType="petrol" speedFactor="1.18" vaporized=""/>
    <tripinfo id="231" depart="231.00" departLane="-30832226#2_0" departPos="5.10" departSpeed="0.00" departDelay="0.00" arrival="355.00" arrivalLane="30831985#0_0" arrivalPos="7.49" arrivalSpeed="9.73" duration="124.00" routeLength="1712.01" waitingTime="0.00" waitingCount="0" stopTime="0.00" timeLoss="23.15" rerouteNo="0" devices="vehroute_231 tripinfo_231" vType="petrol" speedFactor="1.14" vaporized=""/>
    <tripinfo id="4" depart="4.00" departLane="-80239591#2_0" departPos="5.10" departSpeed="0.00" departDelay="0.00" arrival="378.00" arrivalLane="-1301868377#1_0" arrivalPos="137.26" arrivalSpeed="13.75" duration="374.00" routeLength="4248.23" waitingTime="20.00" waitingCount="2" stopTime="0.00" timeLoss="69.48" rerouteNo="0" devices="vehroute_4 tripinfo_4" vType="petrol" speedFactor="1.03" vaporized=""/>
    <tripinfo id="172" depart="172.00" departLane="83015414#1_0" departPos="5.10" departSpeed="0.00" departDelay="0.00" arrival="386.00" arrivalLane="-56743795#2_0" arrivalPos="22.98" arrivalSpeed="10.66" duration="214.00" routeLength="2698.16" waitingTime="0.00" waitingCount="0" stopTime="0.00" timeLoss="31.52" rerouteNo="0" devices="vehroute_172 tripinfo_172" vType="petrol" speedFactor="0.89" vaporized=""/>
    <tripinfo id="253" depart="253.00" departLane="-29426077#1_0" departPos="5.10" departSpeed="0.00" departDelay="0.00" arrival="387.00" arrivalLane="-70266263_0" arrivalPos="17.69" arrivalSpeed="9.72" duration="134.00" routeLength="1469.00" waitingTime="0.00" waitingCount="0" stopTime="0.00" timeLoss="19.90" rerouteNo="0" devices="vehroute_253 tripinfo_253" vType="petrol" speedFactor="0.98" vaporized=""/>
    <tripinfo id="11" depart="11.00" departLane="-49311707#1_0" departPos="5.10" departSpeed="0.00" departDelay="0.00" arrival="398.00" arrivalLane="-28265310_0" arrivalPos="89.27" arrivalSpeed="13.94" duration="387.00" routeLength="5296.59" waitingTime="28.00" waitingCount="1" stopTime="0.00" timeLoss="69.72" rerouteNo="0" devices="vehroute_11 tripinfo_11" vType="petrol" speedFactor="1.03" vaporized=""/>
    <tripinfo id="229" depart="229.00" departLane="-377835506#8_0" departPos="5.10" departSpeed="0.00" departDelay="0.00" arrival="416.00" arrivalLane="-70260576_0" arrivalPos="37.11" arrivalSpeed="12.46" duration="187.00" routeLength="2182.11" waitingTime="0.00" waitingCount="0" stopTime="0.00" timeLoss="19.62" rerouteNo="0" devices="vehroute_229 tripinfo_229 battery_229" vType="EV" speedFactor="0.99" vaporized="">
        <battery depleted="0" actualBatteryCapacity="17268.76" totalEnergyConsumed="480.56" totalEnergyRegenerated="249.32"/>
    </tripinfo>
    <tripinfo id="145" depart="145.00" departLane="24298902#6_0" departPos="5.10" departSpeed="0.00" departDelay="0.00" arrival="417.00" arrivalLane="-49915219_0" arrivalPos="7.29" arrivalSpeed="10.19" duration="272.00" routeLength="3459.00" waitingTime="10.00" waitingCount="1" stopTime="0.00" timeLoss="62.20" rerouteNo="0" devices="vehroute_145 tripinfo_145" vType="petrol" speedFactor="1.14" vaporized=""/>
    <tripinfo id="179" depart="179.00" departLane="389802135#4_0" departPos="5.10" departSpeed="0.00" departDelay="0.00" arrival="428.00" arrivalLane="-679215622#0_0" arrivalPos="0.20" arrivalSpeed="3.42" duration="249.00" routeLength="1382.85" waitingTime="89.00" waitingCount="4" stopTime="0.00" timeLoss="120.48" rerouteNo="0" devices="vehroute_179 tripinfo_179" vType="petrol" speedFactor="1.06" vaporized=""/>
    <tripinfo id="122" depart="122.00" departLane="-30880127#1_0" departPos="5.10" departSpeed="0.00" departDelay="0.00" arrival="439.00" arrivalLane="-82265062_0" arrivalPos="34.55" arrivalSpeed="8.99" duration="317.00" routeLength="3740.10" waitingTime="3.00" waitingCount="1" stopTime="0.00" timeLoss="38.16" rerouteNo="0" devices="vehroute_122 tripinfo_122" vType="petrol" speedFactor="1.03" vaporized=""/>
    <tripinfo id="73" depart="73.00" departLane="143725430#0_0" departPos="5.10" departSpeed="0.00" departDelay="0.00" arrival="444.00" arrivalLane="32533633#6_0" arrivalPos="71.56" arrivalSpeed="14.05" duration="371.00" routeLength="3881.38" waitingTime="97.00" waitingCount="3" stopTime="0.00" timeLoss="160.40" rerouteNo="0" devices="vehroute_73 tripinfo_73 battery_73" vType="EV" speedFactor="1.06" vaporized="">
        <battery depleted="0" actualBatteryCapacity="16975.03" totalEnergyConsumed="1359.73" totalEnergyRegenerated="834.76"/>
    </tripinfo>
    <tripinfo id="333" depart="333.00" departLane="23816633_0" departPos="5.10" departSpeed="0.00" departDelay="0.00" arrival="444.00" arrivalLane="24247397#1_0" arrivalPos="102.81" arrivalSpeed="12.73" duration="111.00" routeLength="898.31" waitingTime="22.00" waitingCount="1" stopTime="0.00" timeLoss="51.52" rerouteNo="0" devices="vehroute_333 tripinfo_333" vType="petrol" speedFactor="0.93" vaporized=""/>
    <tripinfo id="252" depart="252.00" departLane="-143606327#3_0" departPos="5.10" departSpeed="0.00" departDelay="0.00" arrival="453.00" arrivalLane="-81069373#0_0" arrivalPos="40.77" arrivalSpeed="12.71" duration="201.00" routeLength="2288.90" waitingTime="0.00" waitingCount="0" stopTime="0.00" timeLoss="25.17" rerouteNo="0" devices="vehroute_252 tripinfo_252" vType="petrol" speedFactor="0.99" vaporized=""/>
    <tripinfo id="74" depart="74.00" departLane="-28169952#1_0" departPos="5.10" departSpeed="0.00" departDelay="0.00" arrival="462.00" arrivalLane="-668785068#1_0" arrivalPos="22.48" arrivalSpeed="7.80" duration="388.00" routeLength="4622.60" waitingTime="7.00" waitingCount="2" stopTime="0.00" timeLoss="56.05" rerouteNo="0" devices="vehroute_74 tripinfo_74" vType="petrol" speedFactor="0.96" vaporized=""/>
    <tripinfo id="87" depart="87.00" departLane="-206594813#4_0" departPos="4.31" departSpeed="0.00" departDelay="0.00" arrival="465.00" arrivalLane="-94484016#6_0" arrivalPos="94.06" arrivalSpeed="14.12" duration="378.00" routeLength="4491.55" waitingTime="77.00" waitingCount="2" stopTime="0.00" timeLoss="115.16" rerouteNo="0" devices="vehroute_87 tripinfo_87" vType="petrol" speedFactor="1.04" vaporized=""/>
    <tripinfo id="57" depart="57.00" departLane="80343142#0_0" departPos="5.10" departSpeed="0.00" departDelay="0.00" arrival="478.00" arrivalLane="60672869#5_0" arrivalPos="91.32" arrivalSpeed="15.17" duration="421.00" routeLength="5375.04" waitingTime="7.00" waitingCount="1" stopTime="0.00" timeLoss="68.14" rerouteNo="0" devices="vehroute_57 tripinfo_57" vType="petrol" speedFactor="1.14" vaporized=""/>
    <tripinfo id="289" depart="289.00" departLane="598335912_0" departPos="5.10" departSpeed="0.00" departDelay="0.00" arrival="482.00" arrivalLane="-2118#0_0" arrivalPos="7.65" arrivalSpeed="15.07" duration="193.00" routeLength="1412.95" waitingTime="54.00" waitingCount="2" stopTime="0.00" timeLoss="85.19" rerouteNo="0" devices="vehroute_289 tripinfo_289" vType="petrol" speedFactor="1.19" vaporized=""/>
    <tripinfo id="165" depart="165.00" departLane="4713086#20_0" departPos="0.20" departSpeed="0.00" departDelay="0.00" arrival="483.00" arrivalLane="-23803753#1_0" arrivalPos="11.92" arrivalSpeed="7.57" duration="318.00" routeLength="3062.91" waitingTime="54.00" waitingCount="3" stopTime="0.00" timeLoss="104.68" rerouteNo="0" devices="vehroute_165 tripinfo_165" vType="petrol" speedFactor="0.91" vaporized=""/>
    <tripinfo id="119" depart="119.00" departLane="-7997166_0" departPos="5.10" departSpeed="0.00" departDelay="0.00" arrival="485.00" arrivalLane="23105663#1_0" arrivalPos="16.78" arrivalSpeed="14.26" duration="366.00" routeLength="3410.99" waitingTime="99.00" waitingCount="3" stopTime="0.00" timeLoss="160.55" rerouteNo="0" devices="vehroute_119 tripinfo_119" vType="petrol" speedFactor="1.07" vaporized=""/>
    <tripinfo id="7" depart="7.00" departLane="24324664#3_0" departPos="0.20" departSpeed="0.00" departDelay="0.00" arrival="486.00" arrivalLane="199094904_0" arrivalPos="23.37" arrivalSpeed="10.58" duration="479.00" routeLength="4404.04" waitingTime="78.00" waitingCount="2" stopTime="0.00" timeLoss="119.62" rerouteNo="0" devices="vehroute_7 tripinfo_7" vType="petrol" speedFactor="0.89" vaporized=""/>
    <tripinfo id="191" depart="191.00" departLane="-705458517#1_0" departPos="5.10" departSpeed="0.00" departDelay="0.00" arrival="486.00" arrivalLane="-61012410#2_0" arrivalPos="19.43" arrivalSpeed="12.19" duration="295.00" routeLength="2807.36" waitingTime="32.00" waitingCount="3" stopTime="0.00" timeLoss="75.87" rerouteNo="0" devices="vehroute_191 tripinfo_191" vType="petrol" speedFactor="0.93" vaporized=""/>
    <tripinfo id="135" depart="135.00" departLane="26235531#0_0" departPos="5.10" departSpeed="0.00" departDelay="0.00" arrival="487.00" arrivalLane="80503908#5_0" arrivalPos="53.50" arrivalSpeed="13.95" duration="352.00" routeLength="5498.70" waitingTime="1.00" waitingCount="1" stopTime="0.00" timeLoss="52.55" rerouteNo="0" devices="vehroute_135 tripinfo_135" vType="petrol" speedFactor="1.01" vaporized=""/>
    <tripinfo id="29" depart="29.00" departLane="-24299912#3_0" departPos="5.10" departSpeed="0.00" departDelay="0.00" arrival="488.00" arrivalLane="-81069399#0_0" arrivalPos="21.70" arrivalSpeed="12.73" duration="459.00" routeLength="3847.82" waitingTime="89.00" waitingCount="4" stopTime="0.00" timeLoss="145.93" rerouteNo="0" devices="vehroute_29 tripinfo_29" vType="petrol" speedFactor="0.93" vaporized=""/>
    <tripinfo id="88" depart="88.00" departLane="-80249149#1_0" departPos="5.10" departSpeed="0.00" departDelay="0.00" arrival="488.00" arrivalLane="12083242#4_0" arrivalPos="23.32" arrivalSpeed="8.86" duration="400.00" routeLength="3275.88" waitingTime="85.00" waitingCount="4" stopTime="0.00" timeLoss="144.46" rerouteNo="0" devices="vehroute_88 tripinfo_88 battery_88" vType="EV" speedFactor="1.01" vaporized="">
        <battery depleted="0" actualBatteryCapacity="17181.58" totalEnergyConsumed="909.01" totalEnergyRegenerated="590.58"/>
    </tripinfo>
    <tripinfo id="176" depart="176.00" departLane="83239774_0" departPos="5.10" departSpeed="0.00" departDelay="0.00" arrival="492.00" arrivalLane="-31000810#1_0" arrivalPos="0.26" arrivalSpeed="8.76" duration="316.00" routeLength="4681.06" waitingTime="0.00" waitingCount="0" stopTime="0.00" timeLoss="43.85" rerouteNo="0" devices="vehroute_176 tripinfo_176" vType="petrol" speedFactor="1.09" vaporized=""/>
    <tripinfo id="22" depart="22.00" departLane="-191124792#1_0" departPos="5.10" departSpeed="0.00" departDelay="0.00" arrival="493.00" arrivalLane="-45487151#0_0" arrivalPos="228.60" arrivalSpeed="12.28" duration="471.00" routeLength="5702.19" waitingTime="4.00" waitingCount="2" stopTime="0.00" timeLoss="73.87" rerouteNo="0" devices="vehroute_22 tripinfo_22" vType="petrol" speedFactor="0.97" vaporized=""/>
    <tripinfo id="351" depart="351.00" departLane="30832067#2_0" departPos="5.10" departSpeed="0.00" departDelay="0.00" arrival="494.00" arrivalLane="30832139_0" arrivalPos="86.30" arrivalSpeed="7.27" duration="143.00" routeLength="1771.68" waitingTime="0.00" waitingCount="0" stopTime="0.00" timeLoss="15.65" rerouteNo="0" devices="vehroute_351 tripinfo_351" vType="petrol" speedFactor="0.82" vaporized=""/>
    <tripinfo id="10" depart="10.00" departLane="4981561_0" departPos="5.10" departSpeed="0.00" departDelay="0.00" arrival="510.00" arrivalLane="30832110#1_0" arrivalPos="31.53" arrivalSpeed="14.93" duration="500.00" routeLength="7191.69" waitingTime="27.00" waitingCount="2" stopTime="0.00" timeLoss="111.92" rerouteNo="0" devices="vehroute_10 tripinfo_10" vType="petrol" speedFactor="1.09" vaporized=""/>
    <tripinfo id="325" depart="325.00" departLane="-144597758#6_0" departPos="5.10" departSpeed="0.00" departDelay="0.00" arrival="510.00" arrivalLane="-26412122#9_0" arrivalPos="4.34" arrivalSpeed="13.30" duration="185.00" routeLength="2005.13" waitingTime="2.00" waitingCount="1" stopTime="0.00" timeLoss="34.40" rerouteNo="0" devices="vehroute_325 tripinfo_325" vType="petrol" speedFactor="1.01" vaporized=""/>
    <tripinfo id="85" depart="85.00" departLane="-9048029#4_0" departPos="5.10" departSpeed="0.00" departDelay="0.00" arrival="516.00" arrivalLane="4475800#2_0" arrivalPos="94.58" arrivalSpeed="13.07" duration="431.00" routeLength="5884.47" waitingTime="56.00" waitingCount="2" stopTime="0.00" timeLoss="96.94" rerouteNo="0" devices="vehroute_85 tripinfo_85" vType="petrol" speedFactor="0.98" vaporized=""/>
    <tripinfo id="100" depart="100.00" departLane="61430168#0_0" departPos="5.10" departSpeed="0.00" departDelay="0.00" arrival="521.00" arrivalLane="-30727346_0" arrivalPos="31.02" arrivalSpeed="12.97" duration="421.00" routeLength="5024.13" waitingTime="43.00" waitingCount="1" stopTime="0.00" timeLoss="114.99" rerouteNo="0" devices="vehroute_100 tripinfo_100" vType="petrol" speedFactor="1.06" vaporized=""/>
    <tripinfo id="105" depart="105.00" departLane="-82729167#1_0" departPos="5.10" departSpeed="0.00" departDelay="0.00" arrival="529.00" arrivalLane="-8658188#7_0" arrivalPos="24.76" arrivalSpeed="13.90" duration="424.00" routeLength="5352.41" waitingTime="79.00" waitingCount="4" stopTime="0.00" timeLoss="153.13" rerouteNo="0" devices="vehroute_105 tripinfo_105 battery_105" vType="EV" speedFactor="1.07" vaporized="">
        <battery depleted="0" actualBatteryCapacity="16757.62" totalEnergyConsumed="1717.08" totalEnergyRegenerated="974.70"/>
    </tripinfo>
    <tripinfo id="70" depart="70.00" departLane="-918082084#1_0" departPos="3.09" departSpeed="0.00" departDelay="0.00" arrival="532.00" arrivalLane="202753994#23_1" arrivalPos="0.20" arrivalSpeed="3.45" duration="462.00" routeLength="3657.49" waitingTime="139.00" waitingCount="5" stopTime="0.00" timeLoss="223.52" rerouteNo="0" devices="vehroute_70 tripinfo_70" vType="petrol" speedFactor="1.02" vaporized=""/>
    <tripinfo id="360" depart="360.00" departLane="-1323416591_0" departPos="5.10" departSpeed="0.00" departDelay="0.00" arrival="538.00" arrivalLane="39921735#8_0" arrivalPos="0.20" arrivalSpeed="3.73" duration="178.00" routeLength="2087.60" waitingTime="0.00" waitingCount="0" stopTime="0.00" timeLoss="41.67" rerouteNo="0" devices="vehroute_360 tripinfo_360" vType="petrol" speedFactor="1.19" vaporized=""/>
    <tripinfo id="133" depart="133.00" departLane="24883105#6_0" departPos="5.10" departSpeed="0.00" departDelay="0.00" arrival="544.00" arrivalLane="-1115578697#0_0" arrivalPos="17.34" arrivalSpeed="9.75" duration="411.00" routeLength="3970.61" waitingTime="70.00" waitingCount="4" stopTime="0.00" timeLoss="135.46" rerouteNo="0" devices="vehroute_133 tripinfo_133" vType="petrol" speedFactor="1.04" vaporized=""/>
    <tripinfo id="182" depart="182.00" departLane="-31092832_0" departPos="5.10" departSpeed="0.00" departDelay="0.00" arrival="545.00" arrivalLane="30879398_0" arrivalPos="32.01" arrivalSpeed="8.81" duration="363.00" routeLength="3965.20" waitingTime="21.00" waitingCount="2" stopTime="0.00" timeLoss="78.00" rerouteNo="0" devices="vehroute_182 tripinfo_182" vType="petrol" speedFactor="1.03" vaporized=""/>
    <tripinfo id="136" depart="136.00" departLane="-23803862_0" departPos="5.10" departSpeed="0.00" departDelay="0.00" arrival="556.00" arrivalLane="-24247209#0_0" arrivalPos="88.74" arrivalSpeed="14.66" duration="420.00" routeLength="4651.65" waitingTime="65.00" waitingCount="6" stopTime="0.00" timeLoss="161.58" rerouteNo="0" devices="vehroute_136 tripinfo_136" vType="petrol" speedFactor="1.12" vaporized=""/>
    <tripinfo id="58" depart="58.00" departLane="-4470844#2_0" departPos="5.10" departSpeed="0.00" departDelay="0.00" arrival="561.00" arrivalLane="24317427_0" arrivalPos="125.05" arrivalSpeed="13.22" duration="503.00" routeLength="6224.14" waitingTime="29.00" waitingCount="1" stopTime="0.00" timeLoss="92.08" rerouteNo="0" devices="vehroute_58 tripinfo_58" vType="petrol" speedFactor="1.02" vaporized=""/>
    <tripinfo id="110" depart="110.00" departLane="144597768#4_0" departPos="5.10" departSpeed="0.00" departDelay="0.00" arrival="562.00" arrivalLane="380098110#0_0" arrivalPos="0.20" arrivalSpeed="10.67" duration="452.00" routeLength="3663.17" waitingTime="96.00" waitingCount="3" stopTime="0.00" timeLoss="138.83" rerouteNo="0" devices="vehroute_110 tripinfo_110" vType="petrol" speedFactor="0.93" vaporized=""/>
    <tripinfo id="276" depart="276.00" departLane="-23105663#1_0" departPos="5.10" departSpeed="0.00" departDelay="0.00" arrival="564.00" arrivalLane="9053229#6_0" arrivalPos="21.03" arrivalSpeed="7.03" duration="288.00" routeLength="1724.34" waitingTime="89.00" waitingCount="4" stopTime="0.00" timeLoss="138.57" rerouteNo="0" devices="vehroute_276 tripinfo_276" vType="petrol" speedFactor="0.87" vaporized=""/>
    <tripinfo id="283" depart="283.00" departLane="32906914_0" departPos="5.10" departSpeed="0.00" departDelay="0.00" arrival="571.00" arrivalLane="-9788339#4_0" arrivalPos="39.56" arrivalSpeed="13.56" duration="288.00" routeLength="2510.94" waitingTime="33.00" waitingCount="1" stopTime="0.00" timeLoss="80.51" rerouteNo="0" devices="vehroute_283 tripinfo_283" vType="petrol" speedFactor="1.02" vaporized=""/>
    <tripinfo id="299" depart="299.00" departLane="30832215#1_0" departPos="5.10" departSpeed="0.00" departDelay="0.00" arrival="573.00" arrivalLane="24317820_0" arrivalPos="62.83" arrivalSpeed="15.63" duration="274.00" routeLength="3765.03" waitingTime="6.00" waitingCount="1" stopTime="0.00" timeLoss="48.11" rerouteNo="0" devices="vehroute_299 tripinfo_299" vType="petrol" speedFactor="1.16" vaporized=""/>
    <tripinfo id="263" depart="263.00" departLane="-233432411#1_0" departPos="5.10" departSpeed="0.00" departDelay="0.00" arrival="575.00" arrivalLane="27248046#2_0" arrivalPos="0.20" arrivalSpeed="10.90" duration="312.00" routeLength="3332.19" waitingTime="20.00" waitingCount="2" stopTime="0.00" timeLoss="86.25" rerouteNo="0" devices="vehroute_263 tripinfo_263" vType="petrol" speedFactor="0.96" vaporized=""/>
    <tripinfo id="438" depart="438.00" departLane="-52011874_0" departPos="5.10" departSpeed="0.00" departDelay="0.00" arrival="579.00" arrivalLane="23314745#1_0" arrivalPos="136.59" arrivalSpeed="15.95" duration="141.00" routeLength="1779.63" waitingTime="4.00" waitingCount="1" stopTime="0.00" timeLoss="30.97" rerouteNo="0" devices="vehroute_438 tripinfo_438" vType="petrol" speedFactor="1.17" vaporized=""/>
    <tripinfo id="83" depart="83.00" departLane="-30726242#4_0" departPos="5.10" departSpeed="0.00" departDelay="0.00" arrival="581.00" arrivalLane="-24317531#1_0" arrivalPos="32.62" arrivalSpeed="13.34" duration="498.00" routeLength="5819.72" waitingTime="5.00" waitingCount="1" stopTime="0.00" timeLoss="74.29" rerouteNo="0" devices="vehroute_83 tripinfo_83" vType="petrol" speedFactor="0.97" vaporized=""/>
    <tripinfo id="225" depart="225.00" departLane="-31092286#1_0" departPos="5.10" departSpeed="0.00" departDelay="0.00" arrival="584.00" arrivalLane="24317364#1_0" arrivalPos="5.18" arrivalSpeed="11.86" duration="359.00" routeLength="3945.26" waitingTime="34.00" waitingCount="1" stopTime="0.00" timeLoss="90.40" rerouteNo="0" devices="vehroute_225 tripinfo_225" vType="petrol" speedFactor="0.97" vaporized=""/>
    <tripinfo id="18" depart="18.00" departLane="595322005#0_0" departPos="3.30" departSpeed="0.00" departDelay="0.00" arrival="585.00" arrivalLane="24289475#1_0" arrivalPos="18.03" arrivalSpeed="11.74" duration="567.00" routeLength="8454.18" waitingTime="60.00" waitingCount="4" stopTime="0.00" timeLoss="125.53" rerouteNo="0" devices="vehroute_18 tripinfo_18" vType="petrol" speedFactor="0.94" vaporized=""/>
    <tripinfo id="266" depart="266.00" departLane="-24316724#2_0" departPos="5.10" departSpeed="0.00" departDelay="0.00" arrival="585.00" arrivalLane="24246090#0_0" arrivalPos="4.29" arrivalSpeed="8.63" duration="319.00" routeLength="2700.69" waitingTime="45.00" waitingCount="2" stopTime="0.00" timeLoss="81.29" rerouteNo="0" devices="vehroute_266 tripinfo_266" vType="petrol" speedFactor="0.98" vaporized=""/>
    <tripinfo id="376" depart="376.00" departLane="4470831#0_0" departPos="5.10" departSpeed="0.00" departDelay="0.00" arrival="587.00" arrivalLane="24299191#3_0" arrivalPos="29.28" arrivalSpeed="14.25" duration="211.00" routeLength="2557.93" waitingTime="6.00" waitingCount="1" stopTime="0.00" timeLoss="35.06" rerouteNo="0" devices="vehroute_376 tripinfo_376" vType="petrol" speedFactor="1.10" vaporized=""/>
    <tripinfo id="421" depart="421.00" departLane="-168038760#2_0" departPos="5.10" departSpeed="0.00" departDelay="0.00" arrival="596.00" arrivalLane="24300071#3_0" arrivalPos="0.20" arrivalSpeed="14.14" duration="175.00" routeLength="2111.62" waitingTime="1.00" waitingCount="1" stopTime="0.00" timeLoss="25.56" rerouteNo="0" devices="vehroute_421 tripinfo_421" vType="petrol" speedFactor="1.05" vaporized=""/>
    <tripinfo id="96" depart="96.00" departLane="-81634299#0_0" departPos="5.10" departSpeed="0.00" departDelay="0.00" arrival="606.00" arrivalLane="586848223#1_0" arrivalPos="31.11" arrivalSpeed="12.66" duration="510.00" routeLength="5199.44" waitingTime="79.00" waitingCount="5" stopTime="0.00" timeLoss="144.70" rerouteNo="0" devices="vehroute_96 tripinfo_96" vType="petrol" speedFactor="1.01" vaporized=""/>
    <tripinfo id="472" depart="472.00" departLane="28169953#18_0" departPos="5.10" departSpeed="0.00" departDelay="0.00" arrival="609.00" arrivalLane="23149625#2_0" arrivalPos="2.08" arrivalSpeed="8.69" duration="137.00" routeLength="2359.29" waitingTime="0.00" waitingCount="0" stopTime="0.00" timeLoss="30.84" rerouteNo="0" devices="vehroute_472 tripinfo_472" vType="petrol" speedFactor="1.04" vaporized=""/>
    <tripinfo id="215" depart="215.00" departLane="1259067845#10_0" departPos="5.10" departSpeed="0.00" departDelay="0.00" arrival="610.00" arrivalLane="-158734896#4_0" arrivalPos="56.16" arrivalSpeed="14.52" duration="395.00" routeLength="4184.73" waitingTime="56.00" waitingCount="3" stopTime="0.00" timeLoss="111.88" rerouteNo="0" devices="vehroute_215 tripinfo_215" vType="petrol" speedFactor="1.09" vaporized=""/>
    <tripinfo id="372" depart="372.00" departLane="-724240847_0" departPos="5.10" departSpeed="0.00" departDelay="0.00" arrival="611.00" arrivalLane="157590299#3_0" arrivalPos="139.54" arrivalSpeed="13.02" duration="239.00" routeLength="2478.84" waitingTime="19.00" waitingCount="1" stopTime="0.00" timeLoss="53.27" rerouteNo="0" devices="vehroute_372 tripinfo_372" vType="petrol" speedFactor="1.01" vaporized=""/>
    <tripinfo id="459" depart="459.00" departLane="-24317514#1_0" departPos="5.10" departSpeed="0.00" departDelay="0.00" arrival="615.00" arrivalLane="-24317517#0_0" arrivalPos="0.10" arrivalSpeed="9.72" duration="156.00" routeLength="1132.36" waitingTime="23.00" waitingCount="1" stopTime="0.00" timeLoss="43.40" rerouteNo="0" devices="vehroute_459 tripinfo_459" vType="petrol" speedFactor="0.77" vaporized=""/>
    <tripinfo id="19" depart="19.00" departLane="65536947#11_0" departPos="2.93" departSpeed="0.00" departDelay="0.00" arrival="620.00" arrivalLane="226908749#1_0" arrivalPos="8.79" arrivalSpeed="10.53" duration="601.00" routeLength="6920.02" waitingTime="137.00" waitingCount="6" stopTime="0.00" timeLoss="223.94" rerouteNo="0" devices="vehroute_19 tripinfo_19" vType="petrol" speedFactor="1.16" vaporized=""/>
    <tripinfo id="281" depart="281.00" departLane="-209286642_0" departPos="5.10" departSpeed="0.00" departDelay="0.00" arrival="622.00" arrivalLane="82461133#2_0" arrivalPos="31.84" arrivalSpeed="14.31" duration="341.00" routeLength="4829.24" waitingTime="0.00" waitingCount="0" stopTime="0.00" timeLoss="70.52" rerouteNo="0" devices="vehroute_281 tripinfo_281 battery_281" vType="EV" speedFactor="1.08" vaporized="">
        <battery depleted="0" actualBatteryCapacity="16882.99" totalEnergyConsumed="1658.38" totalEnergyRegenerated="1041.38"/>
    </tripinfo>
    <tripinfo id="59" depart="59.00" departLane="23113258_0" departPos="5.10" departSpeed="0.00" departDelay="0.00" arrival="629.00" arrivalLane="-28169331_0" arrivalPos="80.78" arrivalSpeed="13.11" duration="570.00" routeLength="5945.50" waitingTime="72.00" waitingCount="5" stopTime="0.00" timeLoss="152.33" rerouteNo="0" devices="vehroute_59 tripinfo_59 battery_59" vType="EV" speedFactor="0.97" vaporized="">
        <battery depleted="0" actualBatteryCapacity="16871.34" totalEnergyConsumed="1647.90" totalEnergyRegenerated="1019.24"/>
    </tripinfo>